/*--------------------------------*- C++ -*----------------------------------*\
| =========                 |                                                 |
| \\      /  F ield         | OpenFOAM: The Open Source CFD Toolbox           |
|  \\    /   O peration     | Version:  2506                                  |
|   \\  /    A nd           | Website:  www.openfoam.com                      |
|    \\/     M anipulation  |                                                 |
\*---------------------------------------------------------------------------*/
FoamFile
{
    version     2.0;
    format      ascii;
    arch        "LSB;label=32;scalar=64";
    class       volScalarField;
    location    "200";
    object      p;
}
// * * * * * * * * * * * * * * * * * * * * * * * * * * * * * * * * * * * * * //

dimensions      [0 2 -2 0 0 0 0];

internalField   nonuniform List<scalar> 
300000
(
-3.40989e+10
-2.84974e+10
-2.98717e+10
-3.3728e+10
-3.63609e+10
-3.99056e+10
-4.45521e+10
-4.67496e+10
-4.88003e+10
-5.04743e+10
-3.41058e+10
-2.85069e+10
-2.98765e+10
-3.37298e+10
-3.63769e+10
-3.99217e+10
-4.45617e+10
-4.67589e+10
-4.88057e+10
-5.04799e+10
-3.41076e+10
-2.85058e+10
-2.98728e+10
-3.37279e+10
-3.63799e+10
-3.99162e+10
-4.45534e+10
-4.67541e+10
-4.88021e+10
-5.04776e+10
-3.41085e+10
-2.85025e+10
-2.9868e+10
-3.37261e+10
-3.63773e+10
-3.99038e+10
-4.45406e+10
-4.67485e+10
-4.87963e+10
-5.04743e+10
-3.41106e+10
-2.84997e+10
-2.98642e+10
-3.37251e+10
-3.63772e+10
-3.98974e+10
-4.45361e+10
-4.67477e+10
-4.87938e+10
-5.04732e+10
-3.41129e+10
-2.84996e+10
-2.98617e+10
-3.37246e+10
-3.63834e+10
-3.98986e+10
-4.45363e+10
-4.67504e+10
-4.87937e+10
-5.04733e+10
-3.41164e+10
-2.85024e+10
-2.98611e+10
-3.3725e+10
-3.63906e+10
-3.99009e+10
-4.45348e+10
-4.67559e+10
-4.87963e+10
-5.04758e+10
-3.41186e+10
-2.85071e+10
-2.98617e+10
-3.37263e+10
-3.63959e+10
-3.99063e+10
-4.45358e+10
-4.67633e+10
-4.87972e+10
-5.04781e+10
-3.41209e+10
-2.85112e+10
-2.98611e+10
-3.37281e+10
-3.63978e+10
-3.9911e+10
-4.45338e+10
-4.67673e+10
-4.87982e+10
-5.04811e+10
-3.41187e+10
-2.85096e+10
-2.98616e+10
-3.37294e+10
-3.63971e+10
-3.99125e+10
-4.45346e+10
-4.6771e+10
-4.88056e+10
-5.04886e+10
-3.43499e+10
-2.89628e+10
-2.99697e+10
-3.38267e+10
-3.65582e+10
-4.00228e+10
-4.46588e+10
-4.68108e+10
-4.88281e+10
-5.04796e+10
-3.43586e+10
-2.89712e+10
-2.99719e+10
-3.38299e+10
-3.65812e+10
-4.00392e+10
-4.46639e+10
-4.68151e+10
-4.88289e+10
-5.0483e+10
-3.43622e+10
-2.89714e+10
-2.99678e+10
-3.38317e+10
-3.65945e+10
-4.00397e+10
-4.46574e+10
-4.68088e+10
-4.88228e+10
-5.04769e+10
-3.43659e+10
-2.8972e+10
-2.9964e+10
-3.38337e+10
-3.66028e+10
-4.00373e+10
-4.46519e+10
-4.68043e+10
-4.88156e+10
-5.047e+10
-3.43704e+10
-2.89759e+10
-2.99629e+10
-3.38368e+10
-3.66081e+10
-4.0035e+10
-4.46503e+10
-4.68062e+10
-4.88127e+10
-5.04676e+10
-3.43753e+10
-2.89788e+10
-2.99644e+10
-3.38393e+10
-3.66142e+10
-4.00327e+10
-4.46481e+10
-4.68138e+10
-4.88133e+10
-5.04676e+10
-3.43794e+10
-2.89836e+10
-2.99667e+10
-3.38419e+10
-3.66232e+10
-4.00299e+10
-4.46464e+10
-4.68209e+10
-4.88149e+10
-5.04689e+10
-3.43832e+10
-2.89867e+10
-2.9968e+10
-3.38427e+10
-3.6632e+10
-4.00316e+10
-4.46478e+10
-4.68286e+10
-4.8819e+10
-5.0474e+10
-3.43858e+10
-2.89891e+10
-2.99667e+10
-3.3843e+10
-3.66329e+10
-4.00343e+10
-4.46477e+10
-4.68281e+10
-4.88186e+10
-5.04745e+10
-3.43841e+10
-2.89868e+10
-2.99644e+10
-3.3843e+10
-3.66337e+10
-4.00386e+10
-4.46491e+10
-4.68319e+10
-4.88215e+10
-5.04813e+10
-3.52816e+10
-2.9453e+10
-3.03064e+10
-3.41735e+10
-3.7084e+10
-4.04388e+10
-4.48594e+10
-4.69089e+10
-4.88872e+10
-5.05076e+10
-3.52872e+10
-2.94603e+10
-3.03086e+10
-3.41791e+10
-3.71037e+10
-4.04491e+10
-4.48632e+10
-4.69085e+10
-4.88846e+10
-5.05081e+10
-3.52888e+10
-2.94618e+10
-3.0306e+10
-3.41813e+10
-3.71175e+10
-4.04452e+10
-4.48555e+10
-4.69011e+10
-4.88757e+10
-5.05026e+10
-3.52906e+10
-2.94634e+10
-3.03019e+10
-3.41818e+10
-3.71264e+10
-4.04373e+10
-4.48502e+10
-4.68966e+10
-4.88678e+10
-5.04963e+10
-3.5294e+10
-2.9467e+10
-3.03001e+10
-3.41806e+10
-3.71331e+10
-4.04287e+10
-4.48492e+10
-4.68974e+10
-4.88612e+10
-5.04918e+10
-3.52967e+10
-2.94705e+10
-3.03031e+10
-3.41799e+10
-3.71401e+10
-4.04216e+10
-4.48482e+10
-4.69028e+10
-4.88567e+10
-5.04908e+10
-3.52977e+10
-2.94741e+10
-3.03045e+10
-3.41798e+10
-3.71477e+10
-4.04213e+10
-4.48447e+10
-4.69082e+10
-4.88539e+10
-5.04906e+10
-3.52965e+10
-2.94736e+10
-3.03037e+10
-3.41775e+10
-3.71511e+10
-4.04257e+10
-4.48428e+10
-4.69124e+10
-4.88581e+10
-5.04974e+10
-3.52997e+10
-2.9474e+10
-3.03039e+10
-3.41828e+10
-3.71584e+10
-4.04266e+10
-4.48383e+10
-4.69129e+10
-4.88583e+10
-5.05002e+10
-3.52995e+10
-2.94715e+10
-3.03009e+10
-3.41816e+10
-3.71622e+10
-4.04301e+10
-4.48393e+10
-4.69172e+10
-4.88623e+10
-5.0508e+10
-3.6317e+10
-3.00193e+10
-3.05388e+10
-3.47568e+10
-3.78675e+10
-4.10243e+10
-4.51148e+10
-4.7047e+10
-4.89661e+10
-5.05459e+10
-3.63209e+10
-3.00282e+10
-3.05547e+10
-3.47727e+10
-3.78934e+10
-4.10379e+10
-4.51162e+10
-4.7046e+10
-4.89622e+10
-5.05432e+10
-3.63226e+10
-3.00318e+10
-3.05608e+10
-3.47767e+10
-3.79122e+10
-4.10336e+10
-4.51073e+10
-4.70371e+10
-4.89498e+10
-5.05344e+10
-3.63238e+10
-3.00325e+10
-3.05648e+10
-3.47812e+10
-3.79274e+10
-4.10257e+10
-4.50985e+10
-4.7029e+10
-4.89431e+10
-5.05261e+10
-3.63256e+10
-3.0036e+10
-3.05707e+10
-3.47828e+10
-3.7934e+10
-4.10181e+10
-4.50937e+10
-4.70264e+10
-4.89387e+10
-5.05206e+10
-3.6326e+10
-3.0039e+10
-3.05769e+10
-3.47851e+10
-3.79347e+10
-4.10077e+10
-4.50884e+10
-4.70275e+10
-4.89355e+10
-5.05202e+10
-3.63264e+10
-3.00426e+10
-3.05818e+10
-3.47891e+10
-3.79386e+10
-4.09987e+10
-4.50809e+10
-4.70285e+10
-4.8931e+10
-5.0523e+10
-3.63261e+10
-3.00452e+10
-3.05852e+10
-3.48021e+10
-3.79434e+10
-4.0996e+10
-4.50774e+10
-4.70336e+10
-4.89298e+10
-5.05288e+10
-3.63283e+10
-3.00461e+10
-3.05899e+10
-3.48157e+10
-3.79574e+10
-4.09979e+10
-4.50727e+10
-4.70405e+10
-4.89252e+10
-5.05299e+10
-3.63277e+10
-3.00437e+10
-3.05909e+10
-3.48215e+10
-3.7958e+10
-4.10033e+10
-4.50769e+10
-4.70461e+10
-4.89284e+10
-5.05381e+10
-3.75525e+10
-3.06771e+10
-3.11936e+10
-3.6055e+10
-3.8899e+10
-4.18057e+10
-4.54925e+10
-4.72193e+10
-4.90955e+10
-5.05968e+10
-3.75556e+10
-3.0685e+10
-3.12126e+10
-3.6089e+10
-3.89241e+10
-4.1817e+10
-4.54913e+10
-4.72153e+10
-4.90908e+10
-5.0593e+10
-3.75559e+10
-3.06871e+10
-3.12191e+10
-3.61079e+10
-3.89306e+10
-4.18133e+10
-4.548e+10
-4.72057e+10
-4.90781e+10
-5.05852e+10
-3.75554e+10
-3.06865e+10
-3.12224e+10
-3.612e+10
-3.893e+10
-4.18075e+10
-4.54712e+10
-4.71989e+10
-4.90673e+10
-5.05793e+10
-3.75546e+10
-3.06874e+10
-3.12258e+10
-3.61326e+10
-3.89314e+10
-4.18063e+10
-4.54663e+10
-4.71977e+10
-4.90637e+10
-5.05777e+10
-3.75545e+10
-3.06879e+10
-3.12298e+10
-3.61461e+10
-3.89354e+10
-4.17899e+10
-4.54657e+10
-4.71982e+10
-4.90636e+10
-5.0577e+10
-3.75561e+10
-3.06889e+10
-3.1235e+10
-3.61501e+10
-3.89426e+10
-4.17852e+10
-4.54647e+10
-4.71978e+10
-4.90603e+10
-5.05748e+10
-3.75572e+10
-3.06894e+10
-3.12409e+10
-3.61527e+10
-3.89482e+10
-4.17897e+10
-4.54693e+10
-4.72016e+10
-4.90616e+10
-5.05778e+10
-3.75589e+10
-3.06902e+10
-3.12428e+10
-3.61551e+10
-3.89537e+10
-4.17943e+10
-4.54703e+10
-4.72016e+10
-4.90581e+10
-5.0577e+10
-3.75582e+10
-3.06882e+10
-3.12434e+10
-3.61583e+10
-3.89519e+10
-4.18024e+10
-4.54788e+10
-4.72077e+10
-4.90643e+10
-5.05825e+10
-3.88761e+10
-3.13932e+10
-3.18835e+10
-3.74648e+10
-3.9873e+10
-4.2649e+10
-4.59476e+10
-4.74212e+10
-4.92132e+10
-5.06299e+10
-3.88789e+10
-3.14011e+10
-3.19121e+10
-3.74702e+10
-3.99027e+10
-4.26651e+10
-4.59427e+10
-4.74183e+10
-4.92059e+10
-5.06245e+10
-3.88795e+10
-3.14034e+10
-3.19222e+10
-3.7464e+10
-3.99152e+10
-4.2673e+10
-4.59315e+10
-4.74069e+10
-4.91951e+10
-5.06148e+10
-3.88798e+10
-3.14022e+10
-3.19186e+10
-3.74473e+10
-3.99095e+10
-4.26822e+10
-4.59257e+10
-4.73982e+10
-4.91843e+10
-5.06095e+10
-3.88798e+10
-3.14019e+10
-3.19148e+10
-3.74279e+10
-3.9908e+10
-4.26933e+10
-4.59241e+10
-4.73952e+10
-4.91804e+10
-5.06064e+10
-3.88799e+10
-3.14042e+10
-3.19152e+10
-3.74084e+10
-3.99066e+10
-4.27081e+10
-4.59274e+10
-4.73948e+10
-4.91834e+10
-5.06068e+10
-3.88808e+10
-3.14063e+10
-3.19112e+10
-3.73972e+10
-3.99085e+10
-4.27283e+10
-4.59255e+10
-4.73908e+10
-4.91859e+10
-5.06041e+10
-3.88816e+10
-3.14068e+10
-3.19027e+10
-3.73879e+10
-3.99122e+10
-4.2742e+10
-4.59267e+10
-4.73895e+10
-4.91935e+10
-5.06098e+10
-3.88825e+10
-3.14083e+10
-3.18916e+10
-3.73774e+10
-3.99154e+10
-4.27444e+10
-4.59187e+10
-4.73805e+10
-4.91975e+10
-5.06098e+10
-3.88812e+10
-3.14067e+10
-3.18878e+10
-3.7372e+10
-3.99171e+10
-4.27519e+10
-4.59208e+10
-4.73846e+10
-4.92082e+10
-5.06179e+10
-4.08289e+10
-3.21207e+10
-3.29033e+10
-3.86942e+10
-4.09811e+10
-4.33956e+10
-4.64235e+10
-4.76668e+10
-4.93367e+10
-5.06841e+10
-4.08317e+10
-3.21285e+10
-3.28884e+10
-3.86662e+10
-4.09787e+10
-4.34187e+10
-4.64241e+10
-4.76643e+10
-4.933e+10
-5.06799e+10
-4.08335e+10
-3.21247e+10
-3.28663e+10
-3.86325e+10
-4.09662e+10
-4.34272e+10
-4.6417e+10
-4.76537e+10
-4.93184e+10
-5.06705e+10
-4.08345e+10
-3.21144e+10
-3.28395e+10
-3.85937e+10
-4.09401e+10
-4.34355e+10
-4.64134e+10
-4.76409e+10
-4.93098e+10
-5.06628e+10
-4.08363e+10
-3.20998e+10
-3.28098e+10
-3.85504e+10
-4.0909e+10
-4.34435e+10
-4.64122e+10
-4.76375e+10
-4.93052e+10
-5.06575e+10
-4.0837e+10
-3.20841e+10
-3.27851e+10
-3.85039e+10
-4.08736e+10
-4.34647e+10
-4.64156e+10
-4.7636e+10
-4.93061e+10
-5.06572e+10
-4.08386e+10
-3.20721e+10
-3.27685e+10
-3.84684e+10
-4.08268e+10
-4.34829e+10
-4.64215e+10
-4.76363e+10
-4.93054e+10
-5.06544e+10
-4.08401e+10
-3.20637e+10
-3.27586e+10
-3.84497e+10
-4.08033e+10
-4.35022e+10
-4.64174e+10
-4.7638e+10
-4.93108e+10
-5.06548e+10
-4.08423e+10
-3.20572e+10
-3.2756e+10
-3.84455e+10
-4.07984e+10
-4.35129e+10
-4.64136e+10
-4.76317e+10
-4.93113e+10
-5.06518e+10
-4.08416e+10
-3.20564e+10
-3.27606e+10
-3.84468e+10
-4.07975e+10
-4.35202e+10
-4.64176e+10
-4.76386e+10
-4.93191e+10
-5.066e+10
-4.28742e+10
-3.41007e+10
-3.43377e+10
-3.96167e+10
-4.17141e+10
-4.41603e+10
-4.69235e+10
-4.79843e+10
-4.94771e+10
-5.07297e+10
-4.28774e+10
-3.40996e+10
-3.43329e+10
-3.96012e+10
-4.16976e+10
-4.41918e+10
-4.69233e+10
-4.79806e+10
-4.94718e+10
-5.07255e+10
-4.28786e+10
-3.40926e+10
-3.43409e+10
-3.95796e+10
-4.16718e+10
-4.42061e+10
-4.69171e+10
-4.79718e+10
-4.94603e+10
-5.0718e+10
-4.28793e+10
-3.40777e+10
-3.43528e+10
-3.95508e+10
-4.16421e+10
-4.42164e+10
-4.69126e+10
-4.79603e+10
-4.94509e+10
-5.07123e+10
-4.28819e+10
-3.40599e+10
-3.43521e+10
-3.95386e+10
-4.1609e+10
-4.42179e+10
-4.69178e+10
-4.79582e+10
-4.94437e+10
-5.07085e+10
-4.28839e+10
-3.40453e+10
-3.43255e+10
-3.95313e+10
-4.15839e+10
-4.42371e+10
-4.6916e+10
-4.79599e+10
-4.94414e+10
-5.07071e+10
-4.28852e+10
-3.40338e+10
-3.42882e+10
-3.95227e+10
-4.15587e+10
-4.42708e+10
-4.69168e+10
-4.79638e+10
-4.9438e+10
-5.07018e+10
-4.28856e+10
-3.40251e+10
-3.42574e+10
-3.95121e+10
-4.15224e+10
-4.42983e+10
-4.69214e+10
-4.79675e+10
-4.94394e+10
-5.07021e+10
-4.28865e+10
-3.4023e+10
-3.42393e+10
-3.95075e+10
-4.14969e+10
-4.43172e+10
-4.69441e+10
-4.79712e+10
-4.94328e+10
-5.07008e+10
-4.28861e+10
-3.40253e+10
-3.42224e+10
-3.95126e+10
-4.14843e+10
-4.43309e+10
-4.69561e+10
-4.79797e+10
-4.94385e+10
-5.07124e+10
-4.56184e+10
-3.64405e+10
-3.72688e+10
-4.07399e+10
-4.24598e+10
-4.54405e+10
-4.75068e+10
-4.83817e+10
-4.96375e+10
-5.07792e+10
-4.56207e+10
-3.64319e+10
-3.72626e+10
-4.07243e+10
-4.24469e+10
-4.54785e+10
-4.7507e+10
-4.83759e+10
-4.96298e+10
-5.07754e+10
-4.56211e+10
-3.64232e+10
-3.72669e+10
-4.07103e+10
-4.2423e+10
-4.55087e+10
-4.74993e+10
-4.83625e+10
-4.96201e+10
-5.07705e+10
-4.56228e+10
-3.64151e+10
-3.72751e+10
-4.0696e+10
-4.23962e+10
-4.5529e+10
-4.74966e+10
-4.83581e+10
-4.96123e+10
-5.0769e+10
-4.56235e+10
-3.64052e+10
-3.72687e+10
-4.06659e+10
-4.2384e+10
-4.55613e+10
-4.74991e+10
-4.83583e+10
-4.96079e+10
-5.07709e+10
-4.56233e+10
-3.6387e+10
-3.72534e+10
-4.06357e+10
-4.23753e+10
-4.56096e+10
-4.75049e+10
-4.83593e+10
-4.96088e+10
-5.07753e+10
-4.56233e+10
-3.6374e+10
-3.7234e+10
-4.0613e+10
-4.23731e+10
-4.56768e+10
-4.75142e+10
-4.83596e+10
-4.96102e+10
-5.07764e+10
-4.5623e+10
-3.6368e+10
-3.72241e+10
-4.06069e+10
-4.23722e+10
-4.57251e+10
-4.75484e+10
-4.83581e+10
-4.96079e+10
-5.07791e+10
-4.56234e+10
-3.63672e+10
-3.72212e+10
-4.06088e+10
-4.2373e+10
-4.57397e+10
-4.75568e+10
-4.83632e+10
-4.95989e+10
-5.07747e+10
-4.56229e+10
-3.63706e+10
-3.72252e+10
-4.06184e+10
-4.23716e+10
-4.57591e+10
-4.75655e+10
-4.83759e+10
-4.96031e+10
-5.07791e+10
-4.80074e+10
-3.97319e+10
-3.9036e+10
-4.34483e+10
-4.42757e+10
-4.72724e+10
-4.81726e+10
-4.88008e+10
-4.97937e+10
-5.08397e+10
-4.80085e+10
-3.9717e+10
-3.90299e+10
-4.34361e+10
-4.42506e+10
-4.73059e+10
-4.81756e+10
-4.87987e+10
-4.97899e+10
-5.08377e+10
-4.80082e+10
-3.96959e+10
-3.90279e+10
-4.34212e+10
-4.42296e+10
-4.73323e+10
-4.81728e+10
-4.87874e+10
-4.97798e+10
-5.08303e+10
-4.80071e+10
-3.96666e+10
-3.9029e+10
-4.34289e+10
-4.42144e+10
-4.7381e+10
-4.81782e+10
-4.87841e+10
-4.97779e+10
-5.08269e+10
-4.80052e+10
-3.96438e+10
-3.90319e+10
-4.34402e+10
-4.42169e+10
-4.74598e+10
-4.8191e+10
-4.87859e+10
-4.97796e+10
-5.08267e+10
-4.80017e+10
-3.96262e+10
-3.90345e+10
-4.34328e+10
-4.42174e+10
-4.75321e+10
-4.82226e+10
-4.87987e+10
-4.97834e+10
-5.08276e+10
-4.79988e+10
-3.96047e+10
-3.90339e+10
-4.34194e+10
-4.42265e+10
-4.75868e+10
-4.82434e+10
-4.8804e+10
-4.97808e+10
-5.08293e+10
-4.79952e+10
-3.9583e+10
-3.90384e+10
-4.33975e+10
-4.4244e+10
-4.76125e+10
-4.82522e+10
-4.88175e+10
-4.97828e+10
-5.08329e+10
-4.79928e+10
-3.95718e+10
-3.90532e+10
-4.3395e+10
-4.42569e+10
-4.764e+10
-4.82624e+10
-4.88258e+10
-4.97752e+10
-5.08315e+10
-4.79918e+10
-3.95674e+10
-3.90688e+10
-4.33945e+10
-4.42623e+10
-4.76635e+10
-4.82736e+10
-4.88373e+10
-4.97837e+10
-5.08412e+10
-5.19256e+10
-5.19205e+10
-5.19121e+10
-5.1906e+10
-5.19052e+10
-5.19057e+10
-5.19039e+10
-5.19055e+10
-5.19001e+10
-5.1909e+10
-5.26347e+10
-5.26305e+10
-5.26256e+10
-5.26205e+10
-5.26183e+10
-5.26257e+10
-5.263e+10
-5.26393e+10
-5.26417e+10
-5.26521e+10
-5.31138e+10
-5.3113e+10
-5.31116e+10
-5.31118e+10
-5.31114e+10
-5.31185e+10
-5.31222e+10
-5.31326e+10
-5.31363e+10
-5.31468e+10
-5.33548e+10
-5.33518e+10
-5.3349e+10
-5.33596e+10
-5.33687e+10
-5.33825e+10
-5.33911e+10
-5.34043e+10
-5.34102e+10
-5.34186e+10
-5.32644e+10
-5.32578e+10
-5.32551e+10
-5.32581e+10
-5.32719e+10
-5.32861e+10
-5.32984e+10
-5.33114e+10
-5.33175e+10
-5.33282e+10
-5.29457e+10
-5.29375e+10
-5.29364e+10
-5.29398e+10
-5.29462e+10
-5.29607e+10
-5.2972e+10
-5.29847e+10
-5.29876e+10
-5.29981e+10
-5.24393e+10
-5.24327e+10
-5.24349e+10
-5.24464e+10
-5.24544e+10
-5.24668e+10
-5.24777e+10
-5.24904e+10
-5.24963e+10
-5.25109e+10
-5.19174e+10
-5.19087e+10
-5.19077e+10
-5.19165e+10
-5.19274e+10
-5.19345e+10
-5.19393e+10
-5.19534e+10
-5.19612e+10
-5.19779e+10
-5.11573e+10
-5.11494e+10
-5.11477e+10
-5.11479e+10
-5.11515e+10
-5.11563e+10
-5.11547e+10
-5.11604e+10
-5.11647e+10
-5.11825e+10
-5.02593e+10
-5.02506e+10
-5.02442e+10
-5.02398e+10
-5.0243e+10
-5.02455e+10
-5.02412e+10
-5.02393e+10
-5.0232e+10
-5.02392e+10
-5.19083e+10
-5.1905e+10
-5.18968e+10
-5.1892e+10
-5.18879e+10
-5.18858e+10
-5.18828e+10
-5.18882e+10
-5.18881e+10
-5.18953e+10
-5.26482e+10
-5.26453e+10
-5.26392e+10
-5.26325e+10
-5.26323e+10
-5.26357e+10
-5.2639e+10
-5.26502e+10
-5.26563e+10
-5.26646e+10
-5.31674e+10
-5.31636e+10
-5.31618e+10
-5.31614e+10
-5.3165e+10
-5.31732e+10
-5.31798e+10
-5.31913e+10
-5.31982e+10
-5.32069e+10
-5.34218e+10
-5.3419e+10
-5.34169e+10
-5.34221e+10
-5.34282e+10
-5.34401e+10
-5.34505e+10
-5.3462e+10
-5.34649e+10
-5.34759e+10
-5.33178e+10
-5.33117e+10
-5.33114e+10
-5.33178e+10
-5.33273e+10
-5.33401e+10
-5.33503e+10
-5.33632e+10
-5.33689e+10
-5.33796e+10
-5.29696e+10
-5.2962e+10
-5.29569e+10
-5.29545e+10
-5.29673e+10
-5.29814e+10
-5.29917e+10
-5.30063e+10
-5.30128e+10
-5.30221e+10
-5.24529e+10
-5.24459e+10
-5.24438e+10
-5.24485e+10
-5.24539e+10
-5.24738e+10
-5.24832e+10
-5.24996e+10
-5.25055e+10
-5.25182e+10
-5.19175e+10
-5.19105e+10
-5.19103e+10
-5.19184e+10
-5.19235e+10
-5.19333e+10
-5.19391e+10
-5.19498e+10
-5.1955e+10
-5.19707e+10
-5.1124e+10
-5.11177e+10
-5.11157e+10
-5.11138e+10
-5.11264e+10
-5.11348e+10
-5.11371e+10
-5.11444e+10
-5.11518e+10
-5.11704e+10
-5.02155e+10
-5.02094e+10
-5.02059e+10
-5.02026e+10
-5.0206e+10
-5.02117e+10
-5.02132e+10
-5.02174e+10
-5.02146e+10
-5.02255e+10
-5.19019e+10
-5.18966e+10
-5.18853e+10
-5.18792e+10
-5.18733e+10
-5.1873e+10
-5.18676e+10
-5.1871e+10
-5.18756e+10
-5.18836e+10
-5.26683e+10
-5.26654e+10
-5.26581e+10
-5.26528e+10
-5.2653e+10
-5.26575e+10
-5.26604e+10
-5.26713e+10
-5.2675e+10
-5.26847e+10
-5.32084e+10
-5.32061e+10
-5.32042e+10
-5.32044e+10
-5.32084e+10
-5.32177e+10
-5.32239e+10
-5.32319e+10
-5.32351e+10
-5.32454e+10
-5.34723e+10
-5.34686e+10
-5.34663e+10
-5.34723e+10
-5.34788e+10
-5.34877e+10
-5.34925e+10
-5.35014e+10
-5.35048e+10
-5.35138e+10
-5.33579e+10
-5.33514e+10
-5.33501e+10
-5.33564e+10
-5.33653e+10
-5.33766e+10
-5.33866e+10
-5.34e+10
-5.34062e+10
-5.34186e+10
-5.29933e+10
-5.29865e+10
-5.29848e+10
-5.29875e+10
-5.29942e+10
-5.30042e+10
-5.30138e+10
-5.30249e+10
-5.30285e+10
-5.30397e+10
-5.24604e+10
-5.24542e+10
-5.24523e+10
-5.2457e+10
-5.24696e+10
-5.24841e+10
-5.2493e+10
-5.25069e+10
-5.25106e+10
-5.25247e+10
-5.19106e+10
-5.19036e+10
-5.19016e+10
-5.19061e+10
-5.1916e+10
-5.19298e+10
-5.1937e+10
-5.19504e+10
-5.19574e+10
-5.19717e+10
-5.10951e+10
-5.10902e+10
-5.10883e+10
-5.1091e+10
-5.10993e+10
-5.11122e+10
-5.11222e+10
-5.11361e+10
-5.11444e+10
-5.11608e+10
-5.01798e+10
-5.01743e+10
-5.01722e+10
-5.01743e+10
-5.01758e+10
-5.01821e+10
-5.0191e+10
-5.01999e+10
-5.02009e+10
-5.0216e+10
-5.19103e+10
-5.19039e+10
-5.18957e+10
-5.18883e+10
-5.18847e+10
-5.18828e+10
-5.18792e+10
-5.18825e+10
-5.18798e+10
-5.1887e+10
-5.26799e+10
-5.26758e+10
-5.26675e+10
-5.26631e+10
-5.26607e+10
-5.2665e+10
-5.26668e+10
-5.26794e+10
-5.26813e+10
-5.2691e+10
-5.32339e+10
-5.32293e+10
-5.32244e+10
-5.32245e+10
-5.32276e+10
-5.32313e+10
-5.32314e+10
-5.32385e+10
-5.32419e+10
-5.32517e+10
-5.35129e+10
-5.35069e+10
-5.3505e+10
-5.35105e+10
-5.35181e+10
-5.35269e+10
-5.3533e+10
-5.3539e+10
-5.3541e+10
-5.35487e+10
-5.33952e+10
-5.33869e+10
-5.3385e+10
-5.33915e+10
-5.34004e+10
-5.34121e+10
-5.34209e+10
-5.34298e+10
-5.34322e+10
-5.34406e+10
-5.30112e+10
-5.30031e+10
-5.30004e+10
-5.30022e+10
-5.30098e+10
-5.3019e+10
-5.30263e+10
-5.30365e+10
-5.30388e+10
-5.30462e+10
-5.24737e+10
-5.24682e+10
-5.24686e+10
-5.24721e+10
-5.24812e+10
-5.24925e+10
-5.24994e+10
-5.25081e+10
-5.25086e+10
-5.25189e+10
-5.19064e+10
-5.18997e+10
-5.19006e+10
-5.19113e+10
-5.19205e+10
-5.19338e+10
-5.19423e+10
-5.19547e+10
-5.1962e+10
-5.19777e+10
-5.10762e+10
-5.10701e+10
-5.10699e+10
-5.10799e+10
-5.10896e+10
-5.11018e+10
-5.11165e+10
-5.1136e+10
-5.11486e+10
-5.1169e+10
-5.01472e+10
-5.01401e+10
-5.01394e+10
-5.01431e+10
-5.01503e+10
-5.01545e+10
-5.01652e+10
-5.01806e+10
-5.01864e+10
-5.02017e+10
-5.19086e+10
-5.19037e+10
-5.18969e+10
-5.18891e+10
-5.18829e+10
-5.18781e+10
-5.18754e+10
-5.1879e+10
-5.18756e+10
-5.18804e+10
-5.26968e+10
-5.26909e+10
-5.2682e+10
-5.26765e+10
-5.26766e+10
-5.26775e+10
-5.26743e+10
-5.26764e+10
-5.26751e+10
-5.26834e+10
-5.32587e+10
-5.32541e+10
-5.32507e+10
-5.32502e+10
-5.32512e+10
-5.32557e+10
-5.32587e+10
-5.32631e+10
-5.3265e+10
-5.3275e+10
-5.35435e+10
-5.35386e+10
-5.35382e+10
-5.35463e+10
-5.35545e+10
-5.3565e+10
-5.35739e+10
-5.35846e+10
-5.35854e+10
-5.35928e+10
-5.34239e+10
-5.34153e+10
-5.34127e+10
-5.34198e+10
-5.34311e+10
-5.34436e+10
-5.34504e+10
-5.34602e+10
-5.34622e+10
-5.34703e+10
-5.3025e+10
-5.3018e+10
-5.30167e+10
-5.30192e+10
-5.30256e+10
-5.30333e+10
-5.30409e+10
-5.30503e+10
-5.30545e+10
-5.30642e+10
-5.24799e+10
-5.24741e+10
-5.24732e+10
-5.24808e+10
-5.2492e+10
-5.25028e+10
-5.25121e+10
-5.25214e+10
-5.25247e+10
-5.25368e+10
-5.19019e+10
-5.18952e+10
-5.18963e+10
-5.19047e+10
-5.19142e+10
-5.19244e+10
-5.19335e+10
-5.19456e+10
-5.19525e+10
-5.1971e+10
-5.1061e+10
-5.10539e+10
-5.10551e+10
-5.10654e+10
-5.10778e+10
-5.10896e+10
-5.11033e+10
-5.11198e+10
-5.11253e+10
-5.11401e+10
-5.01127e+10
-5.01045e+10
-5.01006e+10
-5.0104e+10
-5.0115e+10
-5.01233e+10
-5.0131e+10
-5.01458e+10
-5.01476e+10
-5.01636e+10
-5.19094e+10
-5.19034e+10
-5.18938e+10
-5.1887e+10
-5.18837e+10
-5.18843e+10
-5.18805e+10
-5.18782e+10
-5.18743e+10
-5.18784e+10
-5.27103e+10
-5.27038e+10
-5.26964e+10
-5.26924e+10
-5.26895e+10
-5.26864e+10
-5.26811e+10
-5.26832e+10
-5.2683e+10
-5.26899e+10
-5.32713e+10
-5.32676e+10
-5.32655e+10
-5.32652e+10
-5.3265e+10
-5.32676e+10
-5.3271e+10
-5.32774e+10
-5.32783e+10
-5.32845e+10
-5.35576e+10
-5.3552e+10
-5.35514e+10
-5.35579e+10
-5.3566e+10
-5.35773e+10
-5.35874e+10
-5.36017e+10
-5.3611e+10
-5.36215e+10
-5.34417e+10
-5.34347e+10
-5.34343e+10
-5.34425e+10
-5.34518e+10
-5.34635e+10
-5.34709e+10
-5.34778e+10
-5.34796e+10
-5.34893e+10
-5.30323e+10
-5.30269e+10
-5.30259e+10
-5.30288e+10
-5.30357e+10
-5.30433e+10
-5.30488e+10
-5.30576e+10
-5.30596e+10
-5.30692e+10
-5.24851e+10
-5.24788e+10
-5.2481e+10
-5.24876e+10
-5.24953e+10
-5.25047e+10
-5.25115e+10
-5.2526e+10
-5.25345e+10
-5.25476e+10
-5.18954e+10
-5.18885e+10
-5.18893e+10
-5.19019e+10
-5.19131e+10
-5.19253e+10
-5.19334e+10
-5.1945e+10
-5.19475e+10
-5.19635e+10
-5.10444e+10
-5.10375e+10
-5.10337e+10
-5.10459e+10
-5.10595e+10
-5.10719e+10
-5.10824e+10
-5.10969e+10
-5.1101e+10
-5.11147e+10
-5.009e+10
-5.00809e+10
-5.00776e+10
-5.00789e+10
-5.00871e+10
-5.00937e+10
-5.01015e+10
-5.01162e+10
-5.01222e+10
-5.01349e+10
-5.1912e+10
-5.19077e+10
-5.19001e+10
-5.18938e+10
-5.18874e+10
-5.18884e+10
-5.18852e+10
-5.18837e+10
-5.18788e+10
-5.18839e+10
-5.27253e+10
-5.27192e+10
-5.27107e+10
-5.27052e+10
-5.27049e+10
-5.27041e+10
-5.26996e+10
-5.27016e+10
-5.27006e+10
-5.27062e+10
-5.3277e+10
-5.32744e+10
-5.32705e+10
-5.32665e+10
-5.3266e+10
-5.32684e+10
-5.32716e+10
-5.32797e+10
-5.32809e+10
-5.32881e+10
-5.356e+10
-5.35566e+10
-5.35556e+10
-5.35613e+10
-5.35687e+10
-5.35778e+10
-5.35868e+10
-5.35993e+10
-5.36064e+10
-5.36171e+10
-5.34491e+10
-5.34433e+10
-5.34417e+10
-5.34474e+10
-5.34568e+10
-5.34714e+10
-5.3479e+10
-5.34877e+10
-5.34938e+10
-5.35051e+10
-5.30271e+10
-5.30218e+10
-5.30195e+10
-5.30228e+10
-5.3031e+10
-5.30431e+10
-5.30539e+10
-5.30662e+10
-5.30683e+10
-5.30758e+10
-5.24874e+10
-5.24811e+10
-5.24803e+10
-5.24832e+10
-5.24885e+10
-5.25011e+10
-5.25118e+10
-5.25254e+10
-5.25283e+10
-5.25377e+10
-5.18931e+10
-5.18863e+10
-5.18897e+10
-5.1901e+10
-5.19093e+10
-5.19201e+10
-5.19268e+10
-5.19377e+10
-5.19394e+10
-5.19513e+10
-5.10309e+10
-5.1023e+10
-5.10232e+10
-5.10296e+10
-5.10402e+10
-5.10503e+10
-5.10581e+10
-5.10713e+10
-5.1079e+10
-5.10937e+10
-5.00687e+10
-5.00601e+10
-5.006e+10
-5.00593e+10
-5.00627e+10
-5.00676e+10
-5.0072e+10
-5.0087e+10
-5.00938e+10
-5.01097e+10
-5.1896e+10
-5.18962e+10
-5.189e+10
-5.18836e+10
-5.18836e+10
-5.18878e+10
-5.18878e+10
-5.18903e+10
-5.18891e+10
-5.18943e+10
-5.27436e+10
-5.27386e+10
-5.27301e+10
-5.27255e+10
-5.2724e+10
-5.27246e+10
-5.27194e+10
-5.2717e+10
-5.27114e+10
-5.27136e+10
-5.32902e+10
-5.32871e+10
-5.32841e+10
-5.32849e+10
-5.32856e+10
-5.32876e+10
-5.32874e+10
-5.32916e+10
-5.32897e+10
-5.3295e+10
-5.35561e+10
-5.35523e+10
-5.35506e+10
-5.35568e+10
-5.35666e+10
-5.35789e+10
-5.35863e+10
-5.35969e+10
-5.36039e+10
-5.36156e+10
-5.34515e+10
-5.34446e+10
-5.34423e+10
-5.34473e+10
-5.34586e+10
-5.34726e+10
-5.34843e+10
-5.34976e+10
-5.35059e+10
-5.35159e+10
-5.30306e+10
-5.30255e+10
-5.30269e+10
-5.303e+10
-5.30344e+10
-5.30472e+10
-5.30588e+10
-5.30731e+10
-5.3078e+10
-5.30874e+10
-5.2483e+10
-5.24777e+10
-5.24781e+10
-5.24849e+10
-5.24894e+10
-5.25001e+10
-5.25083e+10
-5.25175e+10
-5.25192e+10
-5.25292e+10
-5.1884e+10
-5.18766e+10
-5.18754e+10
-5.18877e+10
-5.18993e+10
-5.191e+10
-5.19143e+10
-5.19243e+10
-5.19269e+10
-5.19371e+10
-5.10198e+10
-5.1011e+10
-5.10091e+10
-5.10157e+10
-5.10223e+10
-5.10302e+10
-5.1033e+10
-5.1045e+10
-5.10479e+10
-5.10598e+10
-5.00509e+10
-5.00443e+10
-5.00423e+10
-5.00404e+10
-5.00406e+10
-5.00439e+10
-5.00485e+10
-5.00591e+10
-5.00599e+10
-5.00765e+10
-5.18861e+10
-5.18845e+10
-5.18779e+10
-5.18751e+10
-5.18766e+10
-5.18829e+10
-5.18841e+10
-5.18853e+10
-5.18848e+10
-5.18889e+10
-5.27419e+10
-5.27357e+10
-5.27264e+10
-5.27261e+10
-5.27302e+10
-5.27327e+10
-5.27294e+10
-5.27305e+10
-5.2725e+10
-5.27286e+10
-5.32905e+10
-5.3288e+10
-5.32844e+10
-5.3284e+10
-5.32855e+10
-5.32881e+10
-5.32909e+10
-5.32969e+10
-5.32965e+10
-5.33014e+10
-5.35518e+10
-5.35495e+10
-5.35499e+10
-5.35552e+10
-5.35611e+10
-5.35679e+10
-5.35733e+10
-5.35805e+10
-5.35838e+10
-5.3594e+10
-5.3453e+10
-5.34486e+10
-5.34479e+10
-5.34547e+10
-5.34614e+10
-5.34691e+10
-5.34735e+10
-5.34835e+10
-5.34884e+10
-5.34989e+10
-5.30263e+10
-5.30195e+10
-5.30191e+10
-5.30242e+10
-5.30329e+10
-5.30467e+10
-5.30565e+10
-5.30675e+10
-5.30724e+10
-5.30828e+10
-5.24754e+10
-5.24688e+10
-5.24678e+10
-5.2474e+10
-5.24789e+10
-5.24875e+10
-5.24942e+10
-5.25038e+10
-5.25075e+10
-5.25187e+10
-5.18783e+10
-5.18709e+10
-5.18683e+10
-5.18744e+10
-5.18838e+10
-5.18916e+10
-5.1897e+10
-5.19044e+10
-5.19041e+10
-5.1916e+10
-5.101e+10
-5.1002e+10
-5.09975e+10
-5.09978e+10
-5.10022e+10
-5.1009e+10
-5.10105e+10
-5.10181e+10
-5.10189e+10
-5.10349e+10
-5.00341e+10
-5.00283e+10
-5.00243e+10
-5.00226e+10
-5.0024e+10
-5.00279e+10
-5.00301e+10
-5.00397e+10
-5.00441e+10
-5.00577e+10
-5.18705e+10
-5.18737e+10
-5.18694e+10
-5.18667e+10
-5.1868e+10
-5.18714e+10
-5.18746e+10
-5.18771e+10
-5.18811e+10
-5.18891e+10
-5.27364e+10
-5.27355e+10
-5.27292e+10
-5.27258e+10
-5.27258e+10
-5.2727e+10
-5.27277e+10
-5.273e+10
-5.27307e+10
-5.27367e+10
-5.32929e+10
-5.32914e+10
-5.32888e+10
-5.32864e+10
-5.32866e+10
-5.32887e+10
-5.32919e+10
-5.32948e+10
-5.3298e+10
-5.33063e+10
-5.35436e+10
-5.3543e+10
-5.35419e+10
-5.35443e+10
-5.35487e+10
-5.35506e+10
-5.35522e+10
-5.35571e+10
-5.35614e+10
-5.35709e+10
-5.34401e+10
-5.34344e+10
-5.34349e+10
-5.34437e+10
-5.3452e+10
-5.34586e+10
-5.34599e+10
-5.34634e+10
-5.34668e+10
-5.34754e+10
-5.30196e+10
-5.30143e+10
-5.30109e+10
-5.3014e+10
-5.3023e+10
-5.30428e+10
-5.30602e+10
-5.30667e+10
-5.30668e+10
-5.30743e+10
-5.24719e+10
-5.24668e+10
-5.24642e+10
-5.24632e+10
-5.2466e+10
-5.2475e+10
-5.24917e+10
-5.2503e+10
-5.25071e+10
-5.2516e+10
-5.18708e+10
-5.18625e+10
-5.18598e+10
-5.18637e+10
-5.18734e+10
-5.18812e+10
-5.18875e+10
-5.18952e+10
-5.18964e+10
-5.19052e+10
-5.10046e+10
-5.0996e+10
-5.09919e+10
-5.09903e+10
-5.0994e+10
-5.10043e+10
-5.1008e+10
-5.10087e+10
-5.1011e+10
-5.10259e+10
-5.00276e+10
-5.00235e+10
-5.00203e+10
-5.00206e+10
-5.00225e+10
-5.00245e+10
-5.00286e+10
-5.00327e+10
-5.00379e+10
-5.00524e+10
-4.91583e+10
-4.91503e+10
-4.91463e+10
-4.91455e+10
-4.9143e+10
-4.91419e+10
-4.91372e+10
-4.91345e+10
-4.91171e+10
-4.91234e+10
-4.79595e+10
-4.79543e+10
-4.79531e+10
-4.79556e+10
-4.79589e+10
-4.79648e+10
-4.79685e+10
-4.79729e+10
-4.79717e+10
-4.79885e+10
-4.67861e+10
-4.67803e+10
-4.67743e+10
-4.67667e+10
-4.6777e+10
-4.67872e+10
-4.67902e+10
-4.68054e+10
-4.68101e+10
-4.68199e+10
-4.55644e+10
-4.5561e+10
-4.55609e+10
-4.55639e+10
-4.55724e+10
-4.55908e+10
-4.56003e+10
-4.56235e+10
-4.5633e+10
-4.56539e+10
-4.43001e+10
-4.42993e+10
-4.43068e+10
-4.43437e+10
-4.43579e+10
-4.43815e+10
-4.44022e+10
-4.44287e+10
-4.44405e+10
-4.44629e+10
-4.28224e+10
-4.28224e+10
-4.28243e+10
-4.28505e+10
-4.2876e+10
-4.291e+10
-4.29477e+10
-4.29885e+10
-4.30116e+10
-4.3038e+10
-4.12615e+10
-4.12606e+10
-4.12626e+10
-4.1278e+10
-4.12996e+10
-4.13163e+10
-4.1342e+10
-4.13765e+10
-4.14043e+10
-4.14306e+10
-3.96573e+10
-3.96524e+10
-3.96533e+10
-3.9657e+10
-3.96782e+10
-3.969e+10
-3.96995e+10
-3.97074e+10
-3.97119e+10
-3.97325e+10
-3.81436e+10
-3.81364e+10
-3.81353e+10
-3.81333e+10
-3.81382e+10
-3.81463e+10
-3.81481e+10
-3.81535e+10
-3.81533e+10
-3.81609e+10
-3.66596e+10
-3.66587e+10
-3.66555e+10
-3.66486e+10
-3.66489e+10
-3.66534e+10
-3.66573e+10
-3.66714e+10
-3.66792e+10
-3.66985e+10
-4.91123e+10
-4.91065e+10
-4.91056e+10
-4.91085e+10
-4.91005e+10
-4.91015e+10
-4.91011e+10
-4.91025e+10
-4.90963e+10
-4.9111e+10
-4.79169e+10
-4.79106e+10
-4.79075e+10
-4.7911e+10
-4.79121e+10
-4.79166e+10
-4.79151e+10
-4.79214e+10
-4.79256e+10
-4.79427e+10
-4.67632e+10
-4.67564e+10
-4.67521e+10
-4.67492e+10
-4.67473e+10
-4.67526e+10
-4.67532e+10
-4.67665e+10
-4.67611e+10
-4.67707e+10
-4.55524e+10
-4.55494e+10
-4.5547e+10
-4.55524e+10
-4.55634e+10
-4.55797e+10
-4.55911e+10
-4.56056e+10
-4.56e+10
-4.56137e+10
-4.42911e+10
-4.42916e+10
-4.42965e+10
-4.43217e+10
-4.43416e+10
-4.43694e+10
-4.4393e+10
-4.44066e+10
-4.44273e+10
-4.44511e+10
-4.28298e+10
-4.28275e+10
-4.28253e+10
-4.28543e+10
-4.28798e+10
-4.29134e+10
-4.2958e+10
-4.29913e+10
-4.30199e+10
-4.30537e+10
-4.12675e+10
-4.12634e+10
-4.12611e+10
-4.12808e+10
-4.13011e+10
-4.13237e+10
-4.13566e+10
-4.14003e+10
-4.1419e+10
-4.1449e+10
-3.96534e+10
-3.96498e+10
-3.96519e+10
-3.96514e+10
-3.96784e+10
-3.96833e+10
-3.96893e+10
-3.9702e+10
-3.97046e+10
-3.97228e+10
-3.81327e+10
-3.8129e+10
-3.81294e+10
-3.81145e+10
-3.81211e+10
-3.8123e+10
-3.81267e+10
-3.81357e+10
-3.81361e+10
-3.81507e+10
-3.66461e+10
-3.6643e+10
-3.66386e+10
-3.66377e+10
-3.66324e+10
-3.66353e+10
-3.66439e+10
-3.66612e+10
-3.66657e+10
-3.66883e+10
-4.90737e+10
-4.90683e+10
-4.9066e+10
-4.90708e+10
-4.90651e+10
-4.90654e+10
-4.90655e+10
-4.90698e+10
-4.90608e+10
-4.90739e+10
-4.78799e+10
-4.78732e+10
-4.78693e+10
-4.7868e+10
-4.78696e+10
-4.78695e+10
-4.78634e+10
-4.78669e+10
-4.78595e+10
-4.787e+10
-4.67432e+10
-4.67357e+10
-4.67332e+10
-4.67316e+10
-4.67323e+10
-4.67303e+10
-4.67246e+10
-4.67299e+10
-4.67193e+10
-4.67282e+10
-4.55487e+10
-4.5542e+10
-4.55425e+10
-4.5547e+10
-4.55622e+10
-4.55738e+10
-4.55809e+10
-4.55875e+10
-4.55817e+10
-4.55942e+10
-4.4283e+10
-4.42813e+10
-4.42834e+10
-4.42933e+10
-4.43027e+10
-4.43476e+10
-4.43734e+10
-4.43979e+10
-4.44102e+10
-4.44319e+10
-4.28324e+10
-4.2833e+10
-4.28382e+10
-4.28701e+10
-4.28821e+10
-4.2906e+10
-4.29507e+10
-4.29917e+10